 Gaussian 16, Revision B.01,
 Gaussian 16:  EM64L-G16RevB.01 20-Dec-2017

 ----------------------------------------------------------------------
 #T b3lyp/Def2SVPP opt=(MaxCycles=300) int(grid=ultrafine) IOP(3/36=4)
 scf=(xqc,tight)
 ----------------------------------------------------------------------
 --------------
 Comment gs min
 --------------
 Symbolic Z-matrix:
 Charge =  2 Multiplicity = 1

 SCF Done:  E(RB3LYP) =  -1021.49845141     A.U. after   18 cycles
 SCF Done:  E(RB3LYP) =  -1021.50631550     A.U. after   12 cycles
 SCF Done:  E(RB3LYP) =  -1021.50722335     A.U. after   12 cycles
 SCF Done:  E(RB3LYP) =  -1021.50750449     A.U. after   12 cycles
 SCF Done:  E(RB3LYP) =  -1021.50760616     A.U. after   11 cycles
 SCF Done:  E(RB3LYP) =  -1021.50772120     A.U. after   12 cycles
 SCF Done:  E(RB3LYP) =  -1021.50780019     A.U. after   12 cycles
 SCF Done:  E(RB3LYP) =  -1021.50781202     A.U. after   11 cycles
 SCF Done:  E(RB3LYP) =  -1021.50781605     A.U. after   10 cycles
 SCF Done:  E(RB3LYP) =  -1021.50781712     A.U. after   10 cycles
 SCF Done:  E(RB3LYP) =  -1021.50781720     A.U. after    7 cycles
 SCF Done:  E(RB3LYP) =  -1021.50781721     A.U. after    7 cycles
 Optimization completed.
    -- Stationary point found.

                         Standard orientation:
 ---------------------------------------------------------------------
 Center     Atomic      Atomic             Coordinates (Angstroms)
 Number     Number       Type             X           Y           Z
 ---------------------------------------------------------------------
      1          6           0        7.163063    0.762241   -0.647896
      2          6           0        5.772823    0.901026   -0.813590
      3          6           0        5.012108    0.047175   -0.020904
      4          7           0        3.537091    0.056137   -0.051730
      5          6           0        2.878664   -1.069582    0.323965
      6          6           0        1.492984   -1.117299    0.319986
      7          6           0        0.744022    0.011213   -0.061572
      8          6           0       -0.744022   -0.011211   -0.061572
      9          6           0       -1.492983    1.117301    0.319986
     10          6           0       -2.878664    1.069584    0.323965
     11          7           0       -3.537091   -0.056135   -0.051731
     12          6           0       -5.012108   -0.047173   -0.020906
     13          6           0       -5.772821   -0.901027   -0.813591
     14          6           0       -7.163062   -0.762242   -0.647899
     15          7           0       -7.696389    0.121849    0.189938
     16          6           0       -6.860097    0.898840    0.875895
     17          7           0       -5.525567    0.846331    0.800678
     18          6           0       -2.844993   -1.164024   -0.416737
     19          6           0       -1.459508   -1.167449   -0.430904
     20          6           0        1.459508    1.167451   -0.430904
     21          6           0        2.844994    1.164026   -0.416737
     22          7           0        5.525566   -0.846332    0.800678
     23          6           0        6.860096   -0.898850    0.875888
     24          7           0        7.696389   -0.121853    0.189939
     25          1           0        7.854669    1.388222   -1.224565
     26          1           0        5.368481    1.610881   -1.537546
     27          1           0        3.514538   -1.900410    0.637067
     28          1           0        1.013557   -2.043218    0.646102
     29          1           0       -1.013557    2.043219    0.646102
     30          1           0       -3.514538    1.900412    0.637066
     31          1           0       -5.368479   -1.610881   -1.537546
     32          1           0       -7.854667   -1.388223   -1.224568
     33          1           0       -7.292632    1.638608    1.558854
     34          1           0       -3.424860   -2.050500   -0.675918
     35          1           0       -0.952637   -2.082485   -0.745627
     36          1           0        0.952637    2.082487   -0.745626
     37          1           0        3.424860    2.050502   -0.675917
     38          1           0        7.292630   -1.638604    1.558862
 ---------------------------------------------------------------------

 The electronic state is 1-A.
 Alpha  occ. eigenvalues --  -14.70887 -14.70886 -14.56853 -14.56853 -14.54540
 Alpha  occ. eigenvalues --  -14.54540 -10.53120 -10.53120 -10.52602 -10.52602
 Alpha  occ. eigenvalues --  -10.52355 -10.52355 -10.51740 -10.51736 -10.49188
 Alpha  occ. eigenvalues --  -10.49188 -10.48972 -10.48972 -10.47440 -10.47440
 Alpha  occ. eigenvalues --  -10.45829 -10.45829 -10.44334 -10.44334  -1.29447
 Alpha  occ. eigenvalues --   -1.29406  -1.21299  -1.21254  -1.14508  -1.12122
 Alpha  occ. eigenvalues --   -1.11136  -1.08621  -1.06642  -1.06308  -1.02880
 Alpha  occ. eigenvalues --   -1.01965  -0.97462  -0.95627  -0.93878  -0.92418
 Alpha  occ. eigenvalues --   -0.89705  -0.88529  -0.88085  -0.87893  -0.83438
 Alpha  occ. eigenvalues --   -0.81878  -0.81446  -0.79140  -0.78265  -0.76094
 Alpha  occ. eigenvalues --   -0.75801  -0.75507  -0.74953  -0.73505  -0.73312
 Alpha  occ. eigenvalues --   -0.72610  -0.72447  -0.72205  -0.70218  -0.70070
 Alpha  occ. eigenvalues --   -0.68762  -0.67525  -0.67232  -0.66395  -0.65655
 Alpha  occ. eigenvalues --   -0.65561  -0.65261  -0.63471  -0.63266  -0.62424
 Alpha  occ. eigenvalues --   -0.58335  -0.56303  -0.56228  -0.54552  -0.53944
 Alpha  occ. eigenvalues --   -0.53064  -0.53051  -0.51680  -0.51376  -0.47446
 Alpha  occ. eigenvalues --   -0.47441
 Alpha virt. eigenvalues --   -0.37871  -0.32658  -0.31191  -0.30683  -0.26304
 Alpha virt. eigenvalues --   -0.26081  -0.25661  -0.25068  -0.18265  -0.18005
 Alpha virt. eigenvalues --   -0.17787  -0.16538  -0.15019  -0.14047  -0.13502

 Mulliken charges:
               1
     1  C    0.023238
     2  C   -0.126252
     3  C    0.150882
     4  N   -0.097622
     5  C    0.071313
     6  C   -0.093546
     7  C    0.157574
     8  C    0.157574
     9  C   -0.093546
    10  C    0.071313
    11  N   -0.097622
    12  C    0.150882
    13  C   -0.126252
    14  C    0.023238
    15  N   -0.056479
    16  C    0.058338
    17  N   -0.111847
    18  C    0.059052
    19  C   -0.096973
    20  C   -0.096973
    21  C    0.059052
    22  N   -0.111847
    23  C    0.058338
    24  N   -0.056479
    25  H    0.149608
    26  H    0.120023
    27  H    0.186858
    28  H    0.142605
    29  H    0.142605
    30  H    0.186857
    31  H    0.120023
    32  H    0.149608
    33  H    0.152920
    34  H    0.169396
    35  H    0.140912
    36  H    0.140912
    37  H    0.169396
    38  H    0.152921
 Sum of Mulliken charges =   2.00000

 Dipole moment (field-independent basis, Debye):
    X=              0.0000    Y=              0.0000    Z=             -2.7762  Tot=              2.7762

 Test job not archived.
 1\1\GINC-COMPUTE0-3-1\FOpt\RB3LYP\def2SVPP\C18H14N6(2+)\PETERLI3819\07
 -Jan-2020\0\\#T b3lyp/Def2SVPP opt=(MaxCycles=300) int(grid=ultrafine)
  IOP(3/36=4) scf=(xqc,tight)\\Comment gs min\\2,1\C,-7.1602515108,0.40
 58012555,0.9137251466\C,-5.7706968306,0.5771036718,1.0525670612\C,-5.0
 092098081,-0.1424695064,0.1368968163\N,-3.535229386,-0.0800098173,0.12
 32388626\C,-2.8517187693,-1.1244710252,-0.4095173764\C,-1.4659411913,-
 1.1183878189,-0.4540996372\C,-0.7436840738,-0.0171421701,0.0415535818\
 C,0.7433107367,0.0184938133,-0.0069777434\C,1.4386162103,1.2136521405,

 Normal termination of Gaussian 16 at Tue Jan  7 21:25:58 2020.
