 Q-Chem 4.2, Q-Chem, Inc., Pleasanton, CA (2014).
 Q-Chem 4.2.0 for Intel X86 EM64T Linux

User input:
--------------------------------------------------------------
$molecule
   READ coord.xyz
$end

$rem
MEM_TOTAL 12000
MEM_STATIC 2500
JOBTYPE OPT
GEOM_OPT_MAX_CYCLES 200
GEOM_OPT_PRINT 2

SYMMETRY FALSE

!BP86
EXCHANGE B
CORRELATION P86

BASIS 6-31G*
PURECART 1111

SCF_GUESS CORE

XC_GRID 1
MAX_SCF_CYCLES 200

PRINT_ORBITALS FALSE
SCF_PRINT 1
SCF_FINAL_PRINT 1
POP_MULLIKEN 0

$end
--------------------------------------------------------------

   19    -242.2424436499      5.67E-10 Convergence criterion met
 Total energy in the final basis set = -242.2424436499
   11    -242.2437208419      3.28E-09 Convergence criterion met
 Total energy in the final basis set = -242.2437208419
   11    -242.2437800098      4.57E-09 Convergence criterion met
 Total energy in the final basis set = -242.2437800098
   11    -242.2437910803      3.71E-09 Convergence criterion met
 Total energy in the final basis set = -242.2437910803
   10    -242.2437934614      6.30E-09 Convergence criterion met
 Total energy in the final basis set = -242.2437934614

             Standard Nuclear Orientation (Angstroms)
    I     Atom           X                Y                Z
 ----------------------------------------------------------------
    1      C       1.0887934087    -0.2525559158    -0.0002672681
    2      N       0.6979511450     1.0108405620     0.0006864651
    3      N      -0.6979815327     1.0108397396    -0.0004003327
    4      C      -1.0888220821    -0.2525578855     0.0000610898
    5      N      -0.0000139043    -1.0951150014     0.0001340533
    6      H       2.1203433871    -0.6042889111    -0.0002995413
    7      H      -2.1203717107    -0.6042920808    -0.0000383146
    8      H      -0.0000110136    -2.1142913362     0.0002070711
 ----------------------------------------------------------------

    8    -242.2437932771      3.74E-09 Convergence criterion met
 Total energy in the final basis set = -242.2437932771
 Final energy is   -242.24379327705810
 **  OPTIMIZATION CONVERGED  **

                    Orbital Energies (a.u.)
 --------------------------------------------------------------

 Alpha MOs
 -- Occupied --
-14.095 -14.028 -14.027  -9.974  -9.974  -0.971  -0.835  -0.734
 -0.581  -0.566  -0.529  -0.420  -0.409  -0.406  -0.270  -0.263
 -0.236  -0.210

                    Cartesian Multipole Moments
 -----------------------------------------------------------------
    Charge (ESU x 10^10)
                -0.0000
    Dipole Moment (Debye)
         X       0.0000      Y      -5.5385      Z      -0.0004
       Tot       5.5385
    Quadrupole Moments (Debye-Ang)
        XX     -24.9883     XY       0.0001     YY     -27.8738
        XZ      -0.0021     YZ      -0.0008     ZZ     -29.5925

 Total job time:  60.89s(wall), 108.62s(cpu)
        *  Thank you very much for using Q-Chem.  Have a nice day.  *
